{
    "trace": [
        {
            "role": "user",
            "content": [
                {
                    "type": "text",
                    "text": "Fluorine has a normal boiling point of 85 K, and chlorine boils at 239 K. The Cl2 molecule is much larger than F2 (atomic radius is 99 pm for chlorine and is 64 pm for fluorine). Which is the best reason for the large difference in boiling points?\n\nA. Chlorine has a higher dipole moment than fluorine.\nB. The intramolecular bonds in Cl2 are much weaker than those in F2.\nC. The Cl2 electron clouds are much more polarizable than the F2 electron clouds, resulting in much stronger London forces.\nD. The mass of chlorine is much greater than the mass of fluorine.\n"
                }
            ]
        },
        {
            "role": "assistant",
            "content": [
                {
                    "type": "text",
                    "text": "Let's see here. I have this question about fluorine and chlorine's boiling points. Fluorine boils at 85 K, and chlorine at 239 K. Chlorine is bigger than fluorine, with chlorine having an atomic radius of 99 pm and fluorine having 64 pm. The question is asking for the best reason why there's such a big difference in their boiling points.\n\nFirst, I need to think about what determines the boiling points of these elements. Both fluorine and chlorine are diatomic molecules, F\u2082 and Cl\u2082, respectively. They're both nonpolar molecules because the bonds are between identical atoms.\n\nThe options given are:\n\nA. Chlorine has a higher dipole moment than fluorine.\n\nBut wait, both are nonpolar, so their dipole moments should be zero. Maybe this option is not correct.\n\nB. The intramolecular bonds in Cl\u2082 are much weaker than those in F\u2082.\n\nIntramolecular bonds are the bonds within the molecule. For both F\u2082 and Cl\u2082, these are covalent bonds between the same types of atoms. Fluorine is more electronegative than chlorine, so the F-F bond might actually be stronger. But the question is about boiling points, which relate to intermolecular forces, not intramolecular bonds. So maybe this isn't the right direction.\n\nC. The Cl\u2082 electron clouds are much more polarizable than the F\u2082 electron clouds, resulting in much stronger London forces.\n\nPolarizability is the ease with which an electron cloud can be distorted by an electric field. Larger atoms generally have higher polarizability because their electrons are farther from the nucleus and less tightly held. Since chlorine is larger than fluorine, its electron cloud should be more polarizable. This would lead to stronger London dispersion forces, which are the weakest type of intermolecular forces. Stronger London forces would require more energy to overcome, leading to higher boiling points.\n\nD. The mass of chlorine is much greater than the mass of fluorine.\n\nYes, chlorine has a higher atomic mass than fluorine. Chlorine is atomic number 17, fluorine is 9. So chlorine is heavier. But is mass the only factor here?\n\nWait, option C mentions polarizability, which is related to size and electron distribution, while option D focuses on mass.\n\nBut actually, polarizability is closely tied to mass because larger atoms with more electrons are both more massive and more polarizable.\n\nSo both C and D seem related, but maybe one is more directly responsible than the other.\n\nLet me think about this again. Boiling points are determined by the strength of intermolecular forces. For nonpolar molecules like F\u2082 and Cl\u2082, the main intermolecular forces are London dispersion forces.\n\nThe strength of London forces depends on several factors:\n\n1. Polarizability of the molecules: Higher polarizability leads to stronger London forces.\n\n2. Molecular size: Larger molecules have more electrons and thus stronger London forces.\n\n3. Molecular shape: More spread-out shapes can lead to stronger interactions.\n\nIn this case, Cl\u2082 is larger and has more electrons than F\u2082, so it should have stronger London forces, leading to a higher boiling point.\n\nOption C mentions polarizability directly, which is a key factor, but option D mentions mass, which is also related because higher mass often correlates with more electrons and larger size.\n\nBut perhaps polarizability is a more direct explanation because it encompasses both size and mass effects on the electron cloud's distortion.\n\nLet me consider another angle. If I look at the trend in boiling points across the periodic table, generally, as atomic number increases, boiling points increase due to increased London forces from higher polarizability and more electrons.\n\nSo, in this context, polarizability seems like a comprehensive explanation.\n\nAlternatively, maybe the intramolecular bonds play a role, but I think that's less likely since boiling points are more about what holds the molecules together in the liquid state, not about the bonds within the molecules.\n\nSo, intramolecular bonds (option B) are probably not the main factor here.\n\nOption A seems incorrect because both molecules are nonpolar and should have similar dipole moments, which are zero.\n\nTherefore, between options C and D, C seems better because it directly refers to polarizability, which is a measure of how easily the electron cloud can be distorted, leading to stronger London forces.\n\nMass alone is related, but polarizability is a more precise explanation for the strength of London forces.\n\nSo, I think the best reason is option C: The Cl\u2082 electron clouds are much more polarizable than the F\u2082 electron clouds, resulting in much stronger London forces.\n\n**Final Answer**\n\n\\[ \\boxed{C} \\]"
                }
            ]
        },
        {
            "role": "user",
            "content": [
                {
                    "type": "text",
                    "text": "Now, output the final answer and nothing else:"
                }
            ]
        },
        {
            "role": "assistant",
            "content": [
                {
                    "type": "text",
                    "text": "C"
                }
            ]
        }
    ],
    "final_answer": "C",
    "label": "C"
}