{
    "trace": [
        {
            "role": "user",
            "content": [
                {
                    "type": "text",
                    "text": "Nickel (Z = 28, A = 59) has a first ionization energy of 737 kJ/mol and a boiling point of 2913 \u00b0C, while Pt (Z = 78, A = 195) has a first ionization energy of 870 kJ/mol and a boiling point of 3825 \u00b0C. Which of the following are the most reasonable values of ionization energy and boiling point for palladium?\n\nA. -200 kJ/mol and 3524 \u00b0C\nB. 795 kJ/mol and 2436 \u00b0C\nC. 804 kJ/mol and 2963 \u00b0C\nD. 932 kJ/mol and 3416 \u00b0C\n"
                }
            ]
        },
        {
            "role": "assistant",
            "content": [
                {
                    "type": "text",
                    "text": "Let's tackle this problem step by step. So, we have Nickel and Platinum, and their first ionization energies and boiling points are given. Then, we need to choose the most reasonable values for Palladium's ionization energy and boiling point from the options provided.\n\nFirst off, I need to understand what ionization energy and boiling point represent and how they might relate to the position of an element in the periodic table.\n\nIonization energy is the energy required to remove an electron from an atom in its gaseous state. Generally, as you move across a period from left to right, ionization energy increases because the nuclear charge increases, holding the electrons tighter. Moving down a group, ionization energy tends to decrease because the electrons are in higher energy levels, which are farther from the nucleus and thus easier to remove.\n\nBoiling point is the temperature at which a substance changes from a liquid to a gas phase. For metals, boiling points can be high due to the strong metallic bonds formed by the delocalized electrons.\n\nNow, Palladium (Pd) has an atomic number Z=46 and atomic mass A=106. It's located in period 5, group 10 of the periodic table. Nickel is in period 4, group 10 (Z=28), and Platinum is in period 6, group 10 (Z=78).\n\nSo, comparing these three elements, all are in group 10, but Palladium is between Nickel and Platinum in terms of period number and atomic number.\n\nLet's look at the ionization energies first.\n\nNickel has a first ionization energy of 737 kJ/mol, and Platinum has 870 kJ/mol.\n\nSince Palladium is between Nickel and Platinum in the periodic table, its ionization energy should be higher than Nickel's but lower than Platinum's, considering the general trend of increasing ionization energy across a period and decreasing down a group.\n\nWait, but Palladium is in period 5, Nickel in period 4, and Platinum in period 6. So, moving down the group, ionization energy should decrease, but across the period, it should increase.\n\nActually, group 10 is in the transition metals, and ionization energies in transition metals don't always follow a straightforward trend because of the filling of d-orbitals.\n\nMaybe I need to look at the ionization energies of neighboring elements to get a better idea.\n\nLet's see, for period 4, Nickel (Z=28) has 737 kJ/mol.\n\nPeriod 5, Palladium (Z=46) should have a higher ionization energy than Nickel because it's further to the right in the period, but since it's in a higher period, it might have a slightly lower ionization energy than Platinum.\n\nWait, Platinum is in period 6, so its ionization energy should be lower than Palladium's due to the larger atomic size.\n\nBut according to the data provided, Platinum has a higher ionization energy than Nickel (870 vs. 737 kJ/mol), which suggests that within group 10, ionization energy increases from Nickel to Platinum.\n\nBut that seems counterintuitive because usually, ionization energy decreases down a group due to increased atomic radius.\n\nMaybe there's an exception or a specific trend in transition metals.\n\nLet me check the periodic table.\n\nGroup 10: Nickel (period 4), Palladium (period 5), Platinum (period 6).\n\nLooking at their electron configurations:\n\n- Nickel: [Ar] 3d^8 4s^2\n\n- Palladium: [Kr] 4d^10\n\n- Platinum: [Xe] 4f^14 5d^9 6s^1\n\nWait, Platinum has a 6s^1 and 5d^9 configuration.\n\nSo, Palladium has a full 4d shell, which might make it more stable and thus harder to remove an electron compared to Nickel.\n\nBut generally, down the group, the atomic size increases, and ionization energy decreases.\n\nBut looking at the data:\n\nNickel: 737 kJ/mol\n\nPalladium: ?\n\nPlatinum: 870 kJ/mol\n\nIt seems Platinum has a higher ionization energy than Nickel.\n\nMaybe the trend isn't strictly decreasing down the group in transition metals.\n\nPerhaps I need to look at the effective nuclear charge or other factors.\n\nAlternatively, maybe the ionization energy increases down the group in group 10 due to the filling of the d-orbitals.\n\nBut that seems unlikely.\n\nLet me consider the shielding effect.\n\nIn transition metals, the nuclear charge increases down the group, but the outer electrons are in higher principal quantum levels, which should make them easier to remove.\n\nBut perhaps the increased nuclear charge counteracts the increased atomic size, leading to higher ionization energies down the group.\n\nLooking at the data:\n\nNickel: 737 kJ/mol\n\nPalladium: ?\n\nPlatinum: 870 kJ/mol\n\nIt seems that ionization energy increases from Nickel to Platinum.\n\nSo, perhaps Palladium has an ionization energy between Nickel and Platinum.\n\nLooking at the options:\n\nA. -200 kJ/mol and 3524 \u00b0C\n\nThis can't be right because ionization energy can't be negative.\n\nB. 795 kJ/mol and 2436 \u00b0C\n\nC. 804 kJ/mol and 2963 \u00b0C\n\nD. 932 kJ/mol and 3416 \u00b0C\n\nOption A is out due to the negative ionization energy.\n\nNow, between options B, C, and D, I need to choose the most reasonable values for Palladium's ionization energy and boiling point.\n\nConsidering the ionization energy trend, if it increases from Nickel to Platinum, then Palladium should have an ionization energy higher than Nickel's 737 kJ/mol but lower than Platinum's 870 kJ/mol.\n\nSo, options B, C, and D are all higher than Nickel's, but D is 932 kJ/mol, which is higher than Platinum's 870 kJ/mol.\n\nWait, but Platinum is in a higher period, so maybe its ionization energy is higher.\n\nBut according to the trend, ionization energy should decrease down the group, but in this case, it seems to increase.\n\nAlternatively, perhaps there's a different trend in transition metals.\n\nLet me consider the boiling points.\n\nNickel has a boiling point of 2913 \u00b0C, and Platinum has 3825 \u00b0C.\n\nBoiling points in metals are related to the strength of metallic bonds, which depend on the number of valence electrons and the atomic packing.\n\nGiven that all are in group 10, they have similar electronic configurations.\n\nPalladium is between Nickel and Platinum in the periodic table, so its boiling point should be higher than Nickel's but lower than Platinum's.\n\nLooking at the options:\n\nB. 2436 \u00b0C\n\nC. 2963 \u00b0C\n\nD. 3416 \u00b0C\n\nOption B is 2436 \u00b0C, which is lower than Nickel's 2913 \u00b0C, so that doesn't make sense.\n\nOption C is 2963 \u00b0C, which is slightly higher than Nickel's, and option D is 3416 \u00b0C, which is closer to Platinum's 3825 \u00b0C.\n\nSo, perhaps Palladium's boiling point is around 3000 \u00b0C, higher than Nickel's but lower than Platinum's.\n\nNow, combining both ionization energy and boiling point, option C seems plausible: 804 kJ/mol and 2963 \u00b0C.\n\nBut let's double-check.\n\nOption C's ionization energy is 804 kJ/mol, which is higher than Nickel's 737 kJ/mol and lower than Platinum's 870 kJ/mol, which fits the trend.\n\nIts boiling point is 2963 \u00b0C, which is higher than Nickel's 2913 \u00b0C and lower than Platinum's 3825 \u00b0C, which also fits the trend.\n\nOption D has a higher ionization energy than Platinum's, which might not make sense if ionization energy increases down the group.\n\nOption B has a boiling point lower than Nickel's, which doesn't fit the trend.\n\nTherefore, the most reasonable values for Palladium's ionization energy and boiling point are 804 kJ/mol and 2963 \u00b0C, which corresponds to option C.\n\n**Final Answer**\n\n\\[ \\boxed{C} \\]"
                }
            ]
        },
        {
            "role": "user",
            "content": [
                {
                    "type": "text",
                    "text": "Now, output the final answer and nothing else:"
                }
            ]
        },
        {
            "role": "assistant",
            "content": [
                {
                    "type": "text",
                    "text": "C"
                }
            ]
        }
    ],
    "final_answer": "C",
    "label": "C"
}