{
    "trace": [
        {
            "role": "user",
            "content": [
                {
                    "type": "text",
                    "text": "The first ionization energy for a neutral atom of chlorine is 1.25 MJ/mol and the first ionization energy for a neutral atom of argon is 1.52 MJ/mol. How would the first ionization energy value for a neutral atom of potassum compare to those values?\n\nA. It would be greater than both because potassium carries a greater nuclear charge then either chlorine or argon.\nB. It would be greater than both because the size of a potassium atom is smaller than an atom of either chlorine or argon.\nC. It would be less than both because there are more electrons in potassium, meaning they repel each other more effectively and less energy is needed to remove one.\nD. It would be less than both because a valence electron of potassium is farther from the nucleus than one of either chlorine or argon.\n"
                }
            ]
        },
        {
            "role": "assistant",
            "content": [
                {
                    "type": "text",
                    "text": "Let's see here. I have this question about ionization energies for chlorine, argon, and potassium. So, the first ionization energy for chlorine is 1.25 MJ/mol and for argon it's 1.52 MJ/mol. And I need to figure out how potassium's first ionization energy compares to these values. The options are:\n\nA. It would be greater than both because potassium has a greater nuclear charge than either chlorine or argon.\n\nB. It would be greater than both because the size of a potassium atom is smaller than that of chlorine or argon.\n\nC. It would be less than both because there are more electrons in potassium, meaning they repel each other more effectively and less energy is needed to remove one.\n\nD. It would be less than both because a valence electron of potassium is farther from the nucleus than one of either chlorine or argon.\n\nOkay, first things first, I need to recall what factors affect ionization energy. Ionization energy is the energy required to remove the most loosely bound electron from a neutral atom. Generally, ionization energy increases across a period from left to right and decreases down a group from top to bottom.\n\nCl (chlorine) is in period 3, group 17.\n\nAr (argon) is in period 3, group 18.\n\nK (potassium) is in period 4, group 1.\n\nSo, potassium is below chlorine and argon in the periodic table.\n\nOption A says potassium has a greater nuclear charge than chlorine or argon, so its ionization energy should be greater than both. Wait, nuclear charge increases across a period, but potassium is in a higher period than chlorine and argon. Let me check the atomic numbers:\n\nCl: 17\n\nAr: 18\n\nK: 19\n\nPotassium has a higher nuclear charge (19 protons) compared to chlorine (17) and argon (18). But, ionization energy doesn't only depend on nuclear charge; it also depends on the distance of the electron from the nucleus and the shielding effect of inner electrons.\n\nOption B says potassium has a smaller atomic size than chlorine or argon, which would mean the electron is closer to the nucleus and thus harder to remove, leading to higher ionization energy. But I think potassium actually has a larger atomic radius than chlorine or argon because it's in the next period down, and the electron shells are larger.\n\nWait, let me confirm that. In the periodic table, as you move down a group, atomic radius increases because the principal quantum number increases, meaning electrons are, on average, farther from the nucleus. So, potassium should have a larger atomic radius than chlorine or argon, not smaller. So, option B seems incorrect.\n\nOption C says potassium has more electrons, so they repel each other more effectively, and thus less energy is needed to remove one electron. That makes some sense because potassium has one more electron than argon (19 vs 18), but argon is a noble gas with a full valence shell, and potassium has one electron in the fourth shell. The additional electron in potassium might experience more repulsion from the other electrons, making it easier to remove. But, I need to think about the effective nuclear charge (Z_eff). Z_eff increases with nuclear charge but decreases with shielding by inner electrons. In potassium, the valence electron is in the n=4 shell, which is farther from the nucleus compared to chlorine (n=3) and argon (n=3).\n\nOption D directly states that the valence electron in potassium is farther from the nucleus than in chlorine or argon, which aligns with what I know about atomic radii increasing down a group. If the electron is farther from the nucleus, it experiences less attraction and is easier to remove, leading to lower ionization energy.\n\nSo, based on this, potassium should have a lower ionization energy than chlorine or argon because its valence electron is farther from the nucleus and experiences more shielding from the inner electrons.\n\nLet me see if I can find the ionization energy of potassium to confirm this. I recall that ionization energy generally decreases down a group, so since potassium is below chlorine and argon, its ionization energy should be lower.\n\nWait, but chlorine and argon are not in the same group; chlorine is in group 17 and argon is in group 18, while potassium is in group 1. So, comparing across different groups, but still, the general trend is that ionization energy decreases down a group.\n\nAnother way to think about it is that chlorine has a higher effective nuclear charge than potassium due to its smaller atomic radius, so its electrons are held more tightly, requiring more energy to remove.\n\nSimilarly, argon, being a noble gas, has a full valence shell, which is more stable, so it requires more energy to remove an electron compared to potassium, which has a single valence electron.\n\nTherefore, potassium should have a lower ionization energy than both chlorine and argon.\n\nLooking back at the options, option D seems to be the correct explanation: potassium has a valence electron that is farther from the nucleus than those of chlorine or argon, leading to a lower ionization energy.\n\nOption C mentions electron repulsion, which does play a role, but the primary factor here is the distance of the valence electron from the nucleus.\n\nOption A is incorrect because even though potassium has a higher nuclear charge, the valence electron is in a higher energy level, which makes it easier to remove.\n\nOption B is incorrect because potassium actually has a larger atomic radius than chlorine or argon, not smaller.\n\nTherefore, the answer should be D: it would be less than both because a valence electron of potassium is farther from the nucleus than one of either chlorine or argon.\n\n**Final Answer**\n\n\\[ \\boxed{D} \\]"
                }
            ]
        },
        {
            "role": "user",
            "content": [
                {
                    "type": "text",
                    "text": "Now, output the final answer and nothing else:"
                }
            ]
        },
        {
            "role": "assistant",
            "content": [
                {
                    "type": "text",
                    "text": "D"
                }
            ]
        }
    ],
    "final_answer": "D",
    "label": "D"
}