{
    "trace": [
        {
            "role": "user",
            "content": [
                {
                    "type": "text",
                    "text": "Carbon has an atomic radius of 77 pm and a first ionization energy of 1086 kJ/mol.\n\nA. 70 pm, 1402 kJ/mol\nB. 86 pm, 898 kJ/mol\nC. 135 pm, 523 kJ/mol\nD. 40 pm, 995 kJ/mol\n"
                }
            ]
        },
        {
            "role": "assistant",
            "content": [
                {
                    "type": "text",
                    "text": "So I have this question here about carbon's atomic properties. It says that carbon has an atomic radius of 77 pm and a first ionization energy of 1086 kJ/mol. Then there are four options, each with different values for atomic radius and ionization energy. I need to choose which one matches the description of carbon.\n\nFirst, I need to understand what atomic radius and ionization energy represent. The atomic radius is the distance from the nucleus to the outermost electron in an atom. Ionization energy is the energy required to remove the most loosely bound electron from an isolated atom in its ground state.\n\nNow, the question provides values for carbon's atomic radius and first ionization energy, which are 77 pm and 1086 kJ/mol, respectively. I need to look for an option that has similar values.\n\nLooking at the options:\n\nA. 70 pm, 1402 kJ/mol\n\nB. 86 pm, 898 kJ/mol\n\nC. 135 pm, 523 kJ/mol\n\nD. 40 pm, 995 kJ/mol\n\nI need to compare these with the given values for carbon.\n\nLet's consider the atomic radius first. Carbon is in group 14 of the periodic table, and its atomic number is 6. The atomic radius of carbon is given as 77 pm. Looking at the options:\n\nA. 70 pm \u2013 this is close to 77 pm, but a bit smaller.\n\nB. 86 pm \u2013 this is larger than 77 pm.\n\nC. 135 pm \u2013 this is significantly larger than 77 pm.\n\nD. 40 pm \u2013 this is much smaller than 77 pm.\n\nSo, based on atomic radius alone, options A and B are closer to carbon's atomic radius, while C and D are farther away.\n\nNow, considering the first ionization energy. Carbon has an ionization energy of 1086 kJ/mol. Let's look at the options:\n\nA. 1402 kJ/mol \u2013 this is higher than carbon's ionization energy.\n\nB. 898 kJ/mol \u2013 this is lower than carbon's ionization energy.\n\nC. 523 kJ/mol \u2013 this is significantly lower than carbon's ionization energy.\n\nD. 995 kJ/mol \u2013 this is also lower than carbon's ionization energy.\n\nSo, for ionization energy, option A has a higher value than carbon, while options B, C, and D have lower values.\n\nNow, I need to find an option where both the atomic radius and the ionization energy match carbon's values as closely as possible.\n\nLooking at option A: 70 pm and 1402 kJ/mol. The atomic radius is slightly smaller than carbon's 77 pm, and the ionization energy is higher than carbon's 1086 kJ/mol.\n\nOption B: 86 pm and 898 kJ/mol. The atomic radius is larger than carbon's, and the ionization energy is lower.\n\nOption C: 135 pm and 523 kJ/mol. Both values are significantly different from carbon's.\n\nOption D: 40 pm and 995 kJ/mol. The atomic radius is much smaller, and the ionization energy is lower than carbon's.\n\nGiven that carbon has an atomic radius of 77 pm and an ionization energy of 1086 kJ/mol, the closest match among the options would be option A, which has values of 70 pm and 1402 kJ/mol.\n\nWait a minute, but option A has an ionization energy higher than carbon's, while carbon's is 1086 kJ/mol and option A is 1402 kJ/mol. That's a significant difference.\n\nIs there a possibility that the question is asking for the option that matches carbon's properties, meaning that among these, which element would have similar properties to carbon?\n\nAlternatively, maybe the question is trying to test the understanding of periodic trends in atomic radius and ionization energy.\n\nLet me think differently. Perhaps the question is asking which of these options, if they were properties of an element, would correspond to carbon's position in the periodic table.\n\nBut that seems confusing. Let me check the exact wording of the question.\n\n\"Carbon has an atomic radius of 77 pm and a first ionization energy of 1086 kJ/mol.\n\nA. 70 pm, 1402 kJ/mol\n\nB. 86 pm, 898 kJ/mol\n\nC. 135 pm, 523 kJ/mol\n\nD. 40 pm, 995 kJ/mol\"\n\nIt seems like there might be missing context. Maybe the question is incomplete or there's more to it.\n\nAlternatively, perhaps the question is testing the relationship between atomic radius and ionization energy.\n\nI know that generally, as atomic radius increases, ionization energy decreases, because the electrons are farther from the nucleus and thus easier to remove.\n\nSimilarly, as atomic number increases, atomic radius generally decreases within a period, and ionization energy increases.\n\nGiven that, carbon is in period 2, group 14.\n\nIf I consider elements around carbon, for example, nitrogen (period 2, group 15) has an atomic radius of around 75 pm and ionization energy of 1452 kJ/mol.\n\nOxygen (period 2, group 16) has an atomic radius of around 73 pm and ionization energy of 1314 kJ/mol.\n\nFluorine (period 2, group 17) has an atomic radius of around 72 pm and ionization energy of 1681 kJ/mol.\n\nPhosphorus (period 3, group 15) has an atomic radius of around 110 pm and ionization energy of 1012 kJ/mol.\n\nSulfur (period 3, group 16) has an atomic radius of around 104 pm and ionization energy of 999 kJ/mol.\n\nChlorine (period 3, group 17) has an atomic radius of around 99 pm and ionization energy of 1251 kJ/mol.\n\nSilicon (period 3, group 14) has an atomic radius of around 111 pm and ionization energy of 786 kJ/mol.\n\nSo, comparing these with carbon's 77 pm and 1086 kJ/mol.\n\nOption A: 70 pm, 1402 kJ/mol \u2013 this seems similar to nitrogen's 75 pm and 1452 kJ/mol, but slightly smaller radius and higher ionization energy.\n\nOption B: 86 pm, 898 kJ/mol \u2013 this is close to phosphorus's 110 pm and 1012 kJ/mol, but larger radius and lower ionization energy.\n\nOption C: 135 pm, 523 kJ/mol \u2013 this might correspond to an element in period 4 or beyond, with a much larger atomic radius and lower ionization energy.\n\nOption D: 40 pm, 995 kJ/mol \u2013 this is very small radius, possibly a noble gas or a\u5364gen, but 40 pm is extremely small for an atomic radius.\n\nGiven that, perhaps the question is trying to ask which of these options corresponds to an element that is similar to carbon in terms of its atomic properties.\n\nAlternatively, maybe it's about identifying which option incorrectly matches the atomic radius and ionization energy.\n\nBut the way the question is phrased, \"carbon has an atomic radius of 77 pm and a first ionization energy of 1086 kJ/mol,\" and then presents four options, it seems like it's asking to pick the one that matches carbon's properties.\n\nHowever, none of the options exactly match carbon's values. Option A has a similar atomic radius but a much higher ionization energy. Option B has a larger atomic radius and a lower ionization energy.\n\nGiven that, perhaps the answer is option A, as it has the closest atomic radius and a higher ionization energy, which could be consistent with an element just above carbon in the periodic table.\n\nBut that doesn't make much sense because in reality, nitrogen has similar properties but higher ionization energy and slightly larger atomic radius.\n\nAlternatively, maybe the question is testing the understanding that as atomic radius increases, ionization energy decreases, and vice versa.\n\nIn that case, option C has a large atomic radius and a low ionization energy, which would follow that trend.\n\nBut carbon has a smaller atomic radius and higher ionization energy compared to elements with larger radii.\n\nWait, no, carbon has a smaller atomic radius and higher ionization energy compared to elements in lower periods.\n\nOption C has 135 pm and 523 kJ/mol, which is larger radius and lower ionization energy, consistent with being in a higher period.\n\nOption B has 86 pm and 898 kJ/mol, which is larger radius and lower ionization energy, again consistent with being in a higher period.\n\nOption A has 70 pm and 1402 kJ/mol, which is smaller radius and higher ionization energy, consistent with being in a lower period or to the right in the same period.\n\nOption D has 40 pm and 995 kJ/mol, which is extremely small radius and moderate ionization energy.\n\nGiven that, perhaps the question is to identify which of these options corresponds to an element that is not following the expected trend.\n\nAlternatively, maybe it's about identifying which option represents an element that is isoelectronic with carbon or has similar electronic configuration.\n\nBut that seems unlikely.\n\nI'm getting confused here. Maybe I should look up the actual atomic radii and ionization energies of some elements to see which option matches which element.\n\nFor example, nitrogen: atomic radius ~75 pm, ionization energy ~1452 kJ/mol \u2013 close to option A.\n\nOxygen: ~73 pm, ~1314 kJ/mol \u2013 similar to option A but lower ionization energy.\n\nFluorine: ~72 pm, ~1681 kJ/mol \u2013 higher ionization energy than option A.\n\nPhosphorus: ~110 pm, ~1012 kJ/mol \u2013 larger radius, lower ionization energy, like option B.\n\nSulfur: ~104 pm, ~999 kJ/mol \u2013 similar to option B.\n\nChlorine: ~99 pm, ~1251 kJ/mol \u2013 larger radius, higher ionization energy.\n\nSilicon: ~111 pm, ~786 kJ/mol \u2013 larger radius, lower ionization energy, similar to option C.\n\nAluminum: ~118 pm, ~577 kJ/mol \u2013 larger radius, lower ionization energy.\n\nSodium: ~154 pm, ~496 kJ/mol \u2013 much larger radius, lower ionization energy, like option C.\n\nMagnesium: ~130 pm, ~738 kJ/mol \u2013 larger radius, lower ionization energy.\n\nFrom this, option A seems to correspond to an element like nitrogen, which has a similar atomic radius and high ionization energy.\n\nOption B corresponds to elements like phosphorus or sulfur, which have larger radii and lower ionization energies.\n\nOption C corresponds to elements like silicon or aluminum, with even larger radii and lower ionization energies.\n\nOption D has an extremely small atomic radius, which might correspond to a noble gas like helium (atomic radius ~30 pm, ionization energy ~2372 kJ/mol), but the ionization energy provided is 995 kJ/mol, which doesn't match helium's.\n\nAlternatively, hydrogen has an atomic radius of about 53 pm and ionization energy of 1312 kJ/mol, which is still higher than option D's 995 kJ/mol.\n\nSo, option D doesn't seem to correspond to any common element.\n\nGiven that, perhaps the question is trying to test the understanding that as atomic radius increases, ionization energy decreases, and vice versa.\n\nIn that case, option C has a large atomic radius and low ionization energy, which follows the trend.\n\nOption A has a small atomic radius and high ionization energy, also following the trend.\n\nOption B has a moderately large atomic radius and a moderately low ionization energy, following the trend.\n\nOption D has an extremely small atomic radius and a moderate ionization energy, which might not follow the general trend.\n\nBut without more context, it's hard to determine the exact answer.\n\nPerhaps the best approach is to select the option that most closely matches carbon's atomic radius and ionization energy.\n\nCarbon: 77 pm and 1086 kJ/mol.\n\nOption A: 70 pm and 1402 kJ/mol \u2013 atomic radius is close, but ionization energy is higher.\n\nOption B: 86 pm and 898 kJ/mol \u2013 atomic radius is larger, ionization energy is lower.\n\nOption C: 135 pm and 523 kJ/mol \u2013 atomic radius is much larger, ionization energy is much lower.\n\nOption D: 40 pm and 995 kJ/mol \u2013 atomic radius is much smaller, ionization energy is lower.\n\nGiven that, option A is the closest in atomic radius, and its ionization energy is higher than carbon's, but still within a reasonable range.\n\nTherefore, I would choose option A as the closest match to carbon's properties.\n\n**Final Answer**\n\n\\[ \\boxed{A} \\]"
                }
            ]
        },
        {
            "role": "user",
            "content": [
                {
                    "type": "text",
                    "text": "Now, output the final answer and nothing else:"
                }
            ]
        },
        {
            "role": "assistant",
            "content": [
                {
                    "type": "text",
                    "text": "A"
                }
            ]
        }
    ],
    "final_answer": "A",
    "label": "A"
}