{
    "trace": [
        {
            "role": "user",
            "content": [
                {
                    "type": "text",
                    "text": "The first ionization energy for a neutral atom of chlorine is 1.25 MJ/mol and the first ionization energy for a neutral atom of argon is 1.52 MJ/mol. How would the first ionization energy value for a neutral atom of potassum compare to those values?\n\nA. It would be greater than both because potassium carries a greater nuclear charge then either chlorine or argon.\nB. It would be greater than both because the size of a potassium atom is smaller than an atom of either chlorine or argon.\nC. It would be less than both because there are more electrons in potassium, meaning they repel each other more effectively and less energy is needed to remove one.\nD. It would be less than both because a valence electron of potassium is farther from the nucleus than one of either chlorine or argon.\n"
                }
            ]
        },
        {
            "role": "assistant",
            "content": [
                {
                    "type": "text",
                    "text": "The first ionization energy (the energy required to remove the outermost electron from a neutral atom) is directly proportional to the atomic number (number of protons in the nucleus). This means that a heavier atom will require more energy to remove its outermost electron.\n\nComparing the given values:\n\n- Chlorine has an atomic number of 17, which makes it slightly heavier than Argon (atomic number 18).\n- Potassium has an atomic number of 19, which is significantly heavier than both chlorine and argon.\n\nTherefore, based on the direct proportionality between atomic number and ionization energy, the first ionization energy for a neutral atom of potassium (with an atomic number of 19) would be less than both chlorine and argon.\n\nThe correct answer is D. It would be less than both because a valence electron of potassium is farther from the nucleus than one of either chlorine or argon."
                }
            ]
        },
        {
            "role": "user",
            "content": [
                {
                    "type": "text",
                    "text": "Now, output the final answer and nothing else:"
                }
            ]
        },
        {
            "role": "assistant",
            "content": [
                {
                    "type": "text",
                    "text": "D"
                }
            ]
        }
    ],
    "final_answer": "D",
    "label": "D"
}