{
    "trace": [
        {
            "role": "user",
            "content": [
                {
                    "type": "text",
                    "text": "Nickel (Z = 28, A = 59) has a first ionization energy of 737 kJ/mol and a boiling point of 2913 \u00b0C, while Pt (Z = 78, A = 195) has a first ionization energy of 870 kJ/mol and a boiling point of 3825 \u00b0C. Which of the following are the most reasonable values of ionization energy and boiling point for palladium?\n\nA. -200 kJ/mol and 3524 \u00b0C\nB. 795 kJ/mol and 2436 \u00b0C\nC. 804 kJ/mol and 2963 \u00b0C\nD. 932 kJ/mol and 3416 \u00b0C\n"
                }
            ]
        },
        {
            "role": "assistant",
            "content": [
                {
                    "type": "text",
                    "text": "The ionization energy and boiling point of palladium (Pd (Z = 46, A = 106) can be estimated based on the trends observed in the periodic table for elements with similar atomic numbers.\n\n1. **Ionization Energy**:\n   - Nickel (Ni (Z = 28, A = 59) has a first ionization energy of 737 kJ/mol.\n   - Platinum Pt (Z = 78, A = 195) has a first ionization energy of 870 kJ/mol.\n   - Palladium Pd (Z = 46, A = 106) is between Nickel and Platinum in terms of atomic number. Therefore, its ionization energy should be between 737 kJ/mol and 870 kJ/mol. \n\n   The most reasonable value for the ionization energy of Pd is:\n   - **B. 795 kJ/mol** ( This value is within the range expected for elements between Nickel and Platinum.\n\n2. **Boiling Point**:\n   - Nickel Ni has a boiling point of 2913 \u00b0C.\n   - Platinum Pt has a boiling point of 3825 \u00b0C.\n   - Palladium Pd is between Nickel and Platinum in terms of atomic number. Therefore, its boiling point should be between 2913 \u00b0C and 3825 \u00b0C.\n\n   The most reasonable value for the boiling point of Pd is:\n   - **C. 2963 \u00b0C** This value is within the range expected for elements between Nickel and Platinum.\n\nTherefore, the most reasonable values of ionization energy and boiling point for palladium are:\n\n**B. 795 kJ/mol and 2963 \u00b0C**"
                }
            ]
        },
        {
            "role": "user",
            "content": [
                {
                    "type": "text",
                    "text": "Now, output the final answer and nothing else:"
                }
            ]
        },
        {
            "role": "assistant",
            "content": [
                {
                    "type": "text",
                    "text": "B"
                }
            ]
        }
    ],
    "final_answer": "B",
    "label": "C"
}